# Region type : patch fluidOutlet
# Faces  :    136
# Area   :    2.500203e-07
# Time        	areaAverage(T)
92            	3.003282e+02
