# Region type : patch fluidOutlet
# Faces  :    136
# Area   :    2.500203e-07
# Time        	areaAverage(T)
98            	3.003350e+02
