# Region type : patch fluidOutlet
# Faces  :    136
# Area   :    2.500203e-07
# Time        	areaAverage(T)
60            	3.002793e+02
