# Region type : patch fluidOutlet
# Faces  :    136
# Area   :    2.500203e-07
# Time        	areaAverage(T)
96            	3.003328e+02
