# Region type : patch fluidOutlet
# Faces  :    136
# Area   :    2.500203e-07
# Time        	areaAverage(T)
54            	3.002671e+02
