# Region      : all 
# Cells       : 64
# Volume      : 3.047721e-10
# Time        	max(T)
96            	3.112405e+02
