# Region      : all 
# Cells       : 64
# Volume      : 3.047721e-10
# Time        	max(T)
84            	3.112159e+02
