# Region      : all 
# Cells       : 64
# Volume      : 3.047721e-10
# Time        	max(T)
56            	3.111131e+02
