# Region      : all 
# Cells       : 64
# Volume      : 3.047721e-10
# Time        	max(T)
44            	3.110328e+02
