# Region      : all 
# Cells       : 64
# Volume      : 3.047721e-10
# Time        	max(T)
72            	3.111818e+02
