# Region      : all 
# Cells       : 64
# Volume      : 3.047721e-10
# Time        	max(T)
42            	3.110158e+02
