# Region      : all 
# Cells       : 64
# Volume      : 3.047721e-10
# Time        	max(T)
88            	3.112250e+02
