# Region      : all 
# Cells       : 64
# Volume      : 3.047721e-10
# Time        	max(T)
78            	3.112002e+02
