# Region      : all 
# Cells       : 64
# Volume      : 3.047721e-10
# Time        	max(T)
20            	3.106957e+02
