# Region      : all 
# Cells       : 64
# Volume      : 3.047721e-10
# Time        	max(T)
62            	3.111428e+02
