# Region      : all 
# Cells       : 64
# Volume      : 3.047721e-10
# Time        	max(T)
24            	3.107811e+02
