# Region      : all 
# Cells       : 64
# Volume      : 3.047721e-10
# Time        	max(T)
4             	3.095380e+02
