# Region      : all 
# Cells       : 64
# Volume      : 3.047721e-10
# Time        	max(T)
50            	3.110770e+02
