# Region      : all 
# Cells       : 64
# Volume      : 3.047721e-10
# Time        	max(T)
98            	3.112438e+02
