# Region      : all 
# Cells       : 64
# Volume      : 3.047721e-10
# Time        	max(T)
52            	3.110898e+02
