# Region      : all 
# Cells       : 64
# Volume      : 3.047721e-10
# Time        	max(T)
82            	3.112109e+02
