# Region      : all 
# Cells       : 64
# Volume      : 3.047721e-10
# Time        	max(T)
90            	3.112291e+02
