# Region      : all 
# Cells       : 64
# Volume      : 3.047721e-10
# Time        	max(T)
18            	3.106448e+02
