# Region      : all 
# Cells       : 64
# Volume      : 3.047721e-10
# Time        	max(T)
58            	3.111236e+02
