# Region      : all 
# Cells       : 64
# Volume      : 3.047721e-10
# Time        	max(T)
26            	3.108175e+02
