# Region      : all 
# Cells       : 64
# Volume      : 3.047721e-10
# Time        	max(T)
0             	3.000000e+02
