# Region      : all 
# Cells       : 64
# Volume      : 3.047721e-10
# Time        	max(T)
2             	3.083397e+02
