# Region      : all 
# Cells       : 64
# Volume      : 3.047721e-10
# Time        	max(T)
86            	3.112205e+02
