# Region      : all 
# Cells       : 64
# Volume      : 3.047721e-10
# Time        	max(T)
64            	3.111516e+02
