# Region      : all 
# Cells       : 64
# Volume      : 3.047721e-10
# Time        	max(T)
94            	3.112369e+02
