# Region      : all 
# Cells       : 64
# Volume      : 3.047721e-10
# Time        	max(T)
30            	3.108805e+02
