# Region      : all 
# Cells       : 64
# Volume      : 3.047721e-10
# Time        	max(T)
10            	3.103335e+02
