# Region      : all 
# Cells       : 64
# Volume      : 3.047721e-10
# Time        	max(T)
38            	3.109777e+02
