# Region      : all 
# Cells       : 64
# Volume      : 3.047721e-10
# Time        	max(T)
28            	3.108505e+02
