# Region      : all 
# Cells       : 64
# Volume      : 3.047721e-10
# Time        	max(T)
54            	3.111018e+02
