# Region      : all 
# Cells       : 64
# Volume      : 3.047721e-10
# Time        	max(T)
66            	3.111598e+02
