# Region      : all 
# Cells       : 64
# Volume      : 3.047721e-10
# Time        	max(T)
12            	3.104369e+02
