# Region      : all 
# Cells       : 64
# Volume      : 3.047721e-10
# Time        	max(T)
68            	3.111675e+02
