# Region      : all 
# Cells       : 64
# Volume      : 3.047721e-10
# Time        	max(T)
8             	3.101916e+02
