# Region      : all 
# Cells       : 64
# Volume      : 3.047721e-10
# Time        	max(T)
40            	3.109975e+02
