# Region      : all 
# Cells       : 64
# Volume      : 3.047721e-10
# Time        	max(T)
92            	3.112331e+02
