# Region      : all 
# Cells       : 64
# Volume      : 3.047721e-10
# Time        	max(T)
100           	3.112471e+02
