# Region      : all 
# Cells       : 64
# Volume      : 3.047721e-10
# Time        	max(T)
32            	3.109079e+02
