# Region      : all 
# Cells       : 64
# Volume      : 3.047721e-10
# Time        	max(T)
48            	3.110633e+02
