# Region      : all 
# Cells       : 64
# Volume      : 3.047721e-10
# Time        	max(T)
70            	3.111749e+02
