# Region      : all 
# Cells       : 64
# Volume      : 3.047721e-10
# Time        	max(T)
46            	3.110486e+02
