# Region      : all 
# Cells       : 64
# Volume      : 3.047721e-10
# Time        	max(T)
6             	3.099694e+02
