# Region      : all 
# Cells       : 64
# Volume      : 3.047721e-10
# Time        	max(T)
14            	3.105187e+02
