# Region      : all 
# Cells       : 64
# Volume      : 3.047721e-10
# Time        	max(T)
76            	3.111944e+02
