# Region type : patch fluidInlet
# Faces  :    136
# Area   :    2.500203e-07
# Time        	areaAverage(U)
42            	(1.617246e-09 -1.084111e-09 1.797699e-02)
