# Region type : patch fluidInlet
# Faces  :    136
# Area   :    2.500203e-07
# Time        	areaAverage(U)
88            	(1.623123e-09 -1.009877e-09 1.802876e-02)
