# Region type : patch fluidInlet
# Faces  :    136
# Area   :    2.500203e-07
# Time        	areaAverage(U)
64            	(1.620688e-09 -1.027136e-09 1.800734e-02)
