# Region type : patch fluidInlet
# Faces  :    136
# Area   :    2.500203e-07
# Time        	areaAverage(U)
32            	(1.615174e-09 -1.134473e-09 1.795841e-02)
