# Region type : patch fluidInlet
# Faces  :    136
# Area   :    2.500203e-07
# Time        	areaAverage(U)
0             	(0.000000e+00 0.000000e+00 0.000000e+00)
