# Region type : patch fluidInlet
# Faces  :    136
# Area   :    2.500203e-07
# Time        	areaAverage(U)
48            	(1.618326e-09 -1.062001e-09 1.798655e-02)
