# Region type : patch fluidInlet
# Faces  :    136
# Area   :    2.500203e-07
# Time        	areaAverage(U)
90            	(1.623280e-09 -1.009309e-09 1.803014e-02)
