# Region type : patch fluidInlet
# Faces  :    136
# Area   :    2.500203e-07
# Time        	areaAverage(U)
74            	(1.621842e-09 -1.016846e-09 1.801746e-02)
