# Region type : patch fluidInlet
# Faces  :    136
# Area   :    2.500203e-07
# Time        	areaAverage(U)
72            	(1.621627e-09 -1.018439e-09 1.801559e-02)
