# Region type : patch fluidInlet
# Faces  :    136
# Area   :    2.500203e-07
# Time        	areaAverage(U)
12            	(1.609561e-09 -1.236693e-09 1.790547e-02)
