# Region type : patch fluidInlet
# Faces  :    136
# Area   :    2.500203e-07
# Time        	areaAverage(U)
50            	(1.618662e-09 -1.055902e-09 1.798951e-02)
