# Region type : patch fluidInlet
# Faces  :    136
# Area   :    2.500203e-07
# Time        	areaAverage(U)
98            	(1.623848e-09 -1.007679e-09 1.803516e-02)
