# Region type : patch fluidInlet
# Faces  :    136
# Area   :    2.500203e-07
# Time        	areaAverage(U)
24            	(1.613244e-09 -1.183151e-09 1.794069e-02)
