# Region type : patch fluidInlet
# Faces  :    136
# Area   :    2.500203e-07
# Time        	areaAverage(U)
4             	(1.603234e-09 -1.238229e-09 1.784299e-02)
