# Region type : patch fluidInlet
# Faces  :    136
# Area   :    2.500203e-07
# Time        	areaAverage(U)
96            	(1.623715e-09 -1.008004e-09 1.803398e-02)
