# Region type : patch fluidInlet
# Faces  :    136
# Area   :    2.500203e-07
# Time        	areaAverage(U)
30            	(1.614716e-09 -1.146310e-09 1.795424e-02)
