# Region type : patch fluidInlet
# Faces  :    136
# Area   :    2.500203e-07
# Time        	areaAverage(U)
84            	(1.622792e-09 -1.011276e-09 1.802583e-02)
