# Region type : patch fluidInlet
# Faces  :    136
# Area   :    2.500203e-07
# Time        	areaAverage(U)
60            	(1.620162e-09 -1.033255e-09 1.800272e-02)
