# Region type : patch fluidInlet
# Faces  :    136
# Area   :    2.500203e-07
# Time        	areaAverage(U)
10            	(1.608678e-09 -1.239533e-09 1.789679e-02)
