# Region type : patch fluidInlet
# Faces  :    136
# Area   :    2.500203e-07
# Time        	areaAverage(U)
100           	(1.623977e-09 -1.007397e-09 1.803630e-02)
