# Region type : patch fluidInlet
# Faces  :    136
# Area   :    2.500203e-07
# Time        	areaAverage(U)
86            	(1.622962e-09 -1.010531e-09 1.802732e-02)
