# Region type : patch fluidInlet
# Faces  :    136
# Area   :    2.500203e-07
# Time        	areaAverage(U)
18            	(1.611589e-09 -1.216367e-09 1.792510e-02)
