# Region type : patch fluidInlet
# Faces  :    136
# Area   :    2.500203e-07
# Time        	areaAverage(U)
105           	(1.624275e-09 -1.006877e-09 1.803897e-02)
