# Region type : patch fluidInlet
# Faces  :    136
# Area   :    2.500203e-07
# Time        	areaAverage(U)
58            	(1.619884e-09 -1.036871e-09 1.800027e-02)
