# Region type : patch fluidInlet
# Faces  :    136
# Area   :    2.500203e-07
# Time        	areaAverage(U)
115           	(1.624794e-09 -1.006282e-09 1.804359e-02)
